# vtk DataFile Version 2.0
FEM of 2 laplace equation
ASCII

DATASET UNSTRUCTURED_GRID
POINTS 121 float
0.0 0.0 0.0
1.0 0.0 0.0
2.0 0.0 0.0
3.0 0.0 0.0
4.0 0.0 0.0
5.0 0.0 0.0
6.0 0.0 0.0
7.0 0.0 0.0
8.0 0.0 0.0
9.0 0.0 0.0
10.0 0.0 0.0
0.0 1.0 0.0
1.0 1.0 0.0
2.0 1.0 0.0
3.0 1.0 0.0
4.0 1.0 0.0
5.0 1.0 0.0
6.0 1.0 0.0
7.0 1.0 0.0
8.0 1.0 0.0
9.0 1.0 0.0
10.0 1.0 0.0
0.0 2.0 0.0
1.0 2.0 0.0
2.0 2.0 0.0
3.0 2.0 0.0
4.0 2.0 0.0
5.0 2.0 0.0
6.0 2.0 0.0
7.0 2.0 0.0
8.0 2.0 0.0
9.0 2.0 0.0
10.0 2.0 0.0
0.0 3.0 0.0
1.0 3.0 0.0
2.0 3.0 0.0
3.0 3.0 0.0
4.0 3.0 0.0
5.0 3.0 0.0
6.0 3.0 0.0
7.0 3.0 0.0
8.0 3.0 0.0
9.0 3.0 0.0
10.0 3.0 0.0
0.0 4.0 0.0
1.0 4.0 0.0
2.0 4.0 0.0
3.0 4.0 0.0
4.0 4.0 0.0
5.0 4.0 0.0
6.0 4.0 0.0
7.0 4.0 0.0
8.0 4.0 0.0
9.0 4.0 0.0
10.0 4.0 0.0
0.0 5.0 0.0
1.0 5.0 0.0
2.0 5.0 0.0
3.0 5.0 0.0
4.0 5.0 0.0
5.0 5.0 0.0
6.0 5.0 0.0
7.0 5.0 0.0
8.0 5.0 0.0
9.0 5.0 0.0
10.0 5.0 0.0
0.0 6.0 0.0
1.0 6.0 0.0
2.0 6.0 0.0
3.0 6.0 0.0
4.0 6.0 0.0
5.0 6.0 0.0
6.0 6.0 0.0
7.0 6.0 0.0
8.0 6.0 0.0
9.0 6.0 0.0
10.0 6.0 0.0
0.0 7.0 0.0
1.0 7.0 0.0
2.0 7.0 0.0
3.0 7.0 0.0
4.0 7.0 0.0
5.0 7.0 0.0
6.0 7.0 0.0
7.0 7.0 0.0
8.0 7.0 0.0
9.0 7.0 0.0
10.0 7.0 0.0
0.0 8.0 0.0
1.0 8.0 0.0
2.0 8.0 0.0
3.0 8.0 0.0
4.0 8.0 0.0
5.0 8.0 0.0
6.0 8.0 0.0
7.0 8.0 0.0
8.0 8.0 0.0
9.0 8.0 0.0
10.0 8.0 0.0
0.0 9.0 0.0
1.0 9.0 0.0
2.0 9.0 0.0
3.0 9.0 0.0
4.0 9.0 0.0
5.0 9.0 0.0
6.0 9.0 0.0
7.0 9.0 0.0
8.0 9.0 0.0
9.0 9.0 0.0
10.0 9.0 0.0
0.0 10.0 0.0
1.0 10.0 0.0
2.0 10.0 0.0
3.0 10.0 0.0
4.0 10.0 0.0
5.0 10.0 0.0
6.0 10.0 0.0
7.0 10.0 0.0
8.0 10.0 0.0
9.0 10.0 0.0
10.0 10.0 0.0

CELLS 160 680
4  0 1 12 11
4  1 2 13 12
4  2 3 14 13
4  3 4 15 14
4  4 5 16 15
4  5 6 17 16
4  6 7 18 17
4  7 8 19 18
4  8 9 20 19
4  9 10 21 20
4  11 12 23 22
4  12 13 24 23
4  13 14 25 24
4  14 15 26 25
4  15 16 27 26
4  16 17 28 27
4  17 18 29 28
4  18 19 30 29
4  19 20 31 30
4  20 21 32 31
4  22 23 34 33
4  23 24 35 34
4  24 25 36 35
4  25 26 37 36
4  26 27 38 37
4  27 28 39 38
4  28 29 40 39
4  29 30 41 40
4  30 31 42 41
4  31 32 43 42
4  33 34 45 44
4  34 35 46 45
4  35 36 47 46
4  36 37 48 47
4  37 38 49 48
4  38 39 50 49
4  39 40 51 50
4  40 41 52 51
4  41 42 53 52
4  42 43 54 53
3  44 45 55
3  55 45 56
3  45 46 56
3  56 46 57
3  46 47 57
3  57 47 58
3  47 48 58
3  58 48 59
3  48 49 59
3  59 49 60
3  49 50 60
3  60 50 61
3  50 51 61
3  61 51 62
3  51 52 62
3  62 52 63
3  52 53 63
3  63 53 64
3  53 54 64
3  64 54 65
3  55 56 66
3  66 56 67
3  56 57 67
3  67 57 68
3  57 58 68
3  68 58 69
3  58 59 69
3  69 59 70
3  59 60 70
3  70 60 71
3  60 61 71
3  71 61 72
3  61 62 72
3  72 62 73
3  62 63 73
3  73 63 74
3  63 64 74
3  74 64 75
3  64 65 75
3  75 65 76
3  66 67 77
3  77 67 78
3  67 68 78
3  78 68 79
3  68 69 79
3  79 69 80
3  69 70 80
3  80 70 81
3  70 71 81
3  81 71 82
3  71 72 82
3  82 72 83
3  72 73 83
3  83 73 84
3  73 74 84
3  84 74 85
3  74 75 85
3  85 75 86
3  75 76 86
3  86 76 87
3  77 78 88
3  88 78 89
3  78 79 89
3  89 79 90
3  79 80 90
3  90 80 91
3  80 81 91
3  91 81 92
3  81 82 92
3  92 82 93
3  82 83 93
3  93 83 94
3  83 84 94
3  94 84 95
3  84 85 95
3  95 85 96
3  85 86 96
3  96 86 97
3  86 87 97
3  97 87 98
3  88 89 99
3  99 89 100
3  89 90 100
3  100 90 101
3  90 91 101
3  101 91 102
3  91 92 102
3  102 92 103
3  92 93 103
3  103 93 104
3  93 94 104
3  104 94 105
3  94 95 105
3  105 95 106
3  95 96 106
3  106 96 107
3  96 97 107
3  107 97 108
3  97 98 108
3  108 98 109
3  99 100 110
3  110 100 111
3  100 101 111
3  111 101 112
3  101 102 112
3  112 102 113
3  102 103 113
3  113 103 114
3  103 104 114
3  114 104 115
3  104 105 115
3  115 105 116
3  105 106 116
3  116 106 117
3  106 107 117
3  117 107 118
3  107 108 118
3  118 108 119
3  108 109 119
3  119 109 120

CELL_TYPES 160
9
9
9
9
9
9
9
9
9
9
9
9
9
9
9
9
9
9
9
9
9
9
9
9
9
9
9
9
9
9
9
9
9
9
9
9
9
9
9
9
5
5
5
5
5
5
5
5
5
5
5
5
5
5
5
5
5
5
5
5
5
5
5
5
5
5
5
5
5
5
5
5
5
5
5
5
5
5
5
5
5
5
5
5
5
5
5
5
5
5
5
5
5
5
5
5
5
5
5
5
5
5
5
5
5
5
5
5
5
5
5
5
5
5
5
5
5
5
5
5
5
5
5
5
5
5
5
5
5
5
5
5
5
5
5
5
5
5
5
5
5
5
5
5
5
5
5
5
5
5
5
5
5
5
5
5
5
5
5
5

POINT_DATA 121
SCALARS potential float 1
LOOKUP_TABLE default
0.0883219685255883
0.0
0.0
0.0
0.0
0.0
0.0
0.0
0.0
0.0
0.0883219685255883
0.11921437494267
0.11750069782334
0.10493374477734
0.10233518533275
0.10141467274346
0.10117908148219
0.10141467274346
0.10233518533275
0.10493374477734
0.11750069782334
0.11921437494267
0.2115244660645
0.20965072707175
0.20652398568395
0.20351750020626
0.20231172457991
0.20197495981111
0.20231172457991
0.20351750020626
0.20652398568395
0.20965072707175
0.2115244660645
0.30670297368134
0.30616298029512
0.30477448286582
0.30339271812308
0.30247846654695
0.30219776874098
0.30247846654695
0.30339271812308
0.30477448286582
0.30616298029512
0.30670297368134
0.403685622545
0.40350516937636
0.4030280818738
0.40246980201408
0.40205093778395
0.40190005073013
0.40205093778395
0.40246980201408
0.4030280818738
0.40350516937636
0.403685622545
0.50131351662595
0.50134222681812
0.50134892701308
0.50129239003552
0.50123058782455
0.50119910982832
0.50123058782455
0.50129239003552
0.50134892701308
0.50134222681812
0.50131351662595
0.59890712555324
0.59922290078365
0.59972326971987
0.60013083803021
0.60035961370105
0.60043352801066
0.60035961370105
0.60013083803021
0.59972326971987
0.59922290078365
0.59890712555324
0.69589653329465
0.69691610361563
0.69820727019814
0.69913368844986
0.69964169644028
0.69980228797275
0.69964169644028
0.69913368844986
0.69820727019814
0.69691610361563
0.69589653329465
0.79086197013752
0.79435115121159
0.79705219256105
0.79855377125189
0.79927234196955
0.79947614472701
0.79927234196955
0.79855377125189
0.79705219256105
0.79435115121159
0.79086197013752
0.87886184040978
0.89257729894408
0.89709738152484
0.89876473672442
0.89939946905033
0.89957283646008
0.89939946905033
0.89876473672442
0.89709738152484
0.89257729894408
0.87886184040978
0.93943372618968
1.0
1.0
1.0
1.0
1.0
1.0
1.0
1.0
1.0
0.93943372618968
