# vtk DataFile Version 2.0
FEM of 2 laplace equation
ASCII

DATASET UNSTRUCTURED_GRID
POINTS 1111 float
0.0 0.0 0.0
1.0 0.0 0.0
2.0 0.0 0.0
3.0 0.0 0.0
4.0 0.0 0.0
5.0 0.0 0.0
6.0 0.0 0.0
7.0 0.0 0.0
8.0 0.0 0.0
9.0 0.0 0.0
10.0 0.0 0.0
0.95885107720841 1.0 0.0
1.95885107720841 1.0 0.0
2.95885107720841 1.0 0.0
3.95885107720841 1.0 0.0
4.95885107720841 1.0 0.0
5.95885107720841 1.0 0.0
6.95885107720841 1.0 0.0
7.95885107720841 1.0 0.0
8.95885107720841 1.0 0.0
9.95885107720841 1.0 0.0
10.9588510772084 1.0 0.0
1.68294196961579 2.0 0.0
2.68294196961579 2.0 0.0
3.68294196961579 2.0 0.0
4.68294196961579 2.0 0.0
5.68294196961579 2.0 0.0
6.68294196961579 2.0 0.0
7.68294196961579 2.0 0.0
8.68294196961579 2.0 0.0
9.68294196961579 2.0 0.0
10.6829419696158 2.0 0.0
11.6829419696158 2.0 0.0
1.99498997320811 3.0 0.0
2.99498997320811 3.0 0.0
3.99498997320811 3.0 0.0
4.99498997320811 3.0 0.0
5.99498997320811 3.0 0.0
6.99498997320811 3.0 0.0
7.99498997320811 3.0 0.0
8.99498997320811 3.0 0.0
9.99498997320811 3.0 0.0
10.9949899732081 3.0 0.0
11.9949899732081 3.0 0.0
1.81859485365136 4.0 0.0
2.81859485365136 4.0 0.0
3.81859485365136 4.0 0.0
4.81859485365136 4.0 0.0
5.81859485365136 4.0 0.0
6.81859485365136 4.0 0.0
7.81859485365136 4.0 0.0
8.81859485365136 4.0 0.0
9.81859485365136 4.0 0.0
10.8185948536514 4.0 0.0
11.8185948536514 4.0 0.0
1.19694428820791 5.0 0.0
2.19694428820791 5.0 0.0
3.19694428820791 5.0 0.0
4.19694428820791 5.0 0.0
5.19694428820791 5.0 0.0
6.19694428820791 5.0 0.0
7.19694428820791 5.0 0.0
8.19694428820791 5.0 0.0
9.19694428820791 5.0 0.0
10.1969442882079 5.0 0.0
11.1969442882079 5.0 0.0
0.28224001611973 6.0 0.0
1.28224001611973 6.0 0.0
2.28224001611973 6.0 0.0
3.28224001611973 6.0 0.0
4.28224001611973 6.0 0.0
5.28224001611973 6.0 0.0
6.28224001611973 6.0 0.0
7.28224001611973 6.0 0.0
8.28224001611973 6.0 0.0
9.28224001611973 6.0 0.0
10.2822400161197 6.0 0.0
-0.70156645537924 7.0 0.0
0.29843354462076 7.0 0.0
1.29843354462076 7.0 0.0
2.29843354462076 7.0 0.0
3.29843354462076 7.0 0.0
4.29843354462076 7.0 0.0
5.29843354462076 7.0 0.0
6.29843354462076 7.0 0.0
7.29843354462076 7.0 0.0
8.29843354462076 7.0 0.0
9.29843354462076 7.0 0.0
-1.51360499061586 8.0 0.0
-0.51360499061586 8.0 0.0
0.48639500938414 8.0 0.0
1.48639500938414 8.0 0.0
2.48639500938414 8.0 0.0
3.48639500938414 8.0 0.0
4.48639500938414 8.0 0.0
5.48639500938414 8.0 0.0
6.48639500938414 8.0 0.0
7.48639500938414 8.0 0.0
8.48639500938414 8.0 0.0
-1.95506023533019 9.0 0.0
-0.95506023533019 9.0 0.0
0.044939764669806 9.0 0.0
1.04493976466981 9.0 0.0
2.04493976466981 9.0 0.0
3.04493976466981 9.0 0.0
4.04493976466981 9.0 0.0
5.04493976466981 9.0 0.0
6.04493976466981 9.0 0.0
7.04493976466981 9.0 0.0
8.04493976466981 9.0 0.0
-1.91784854932628 10.0 0.0
-0.91784854932628 10.0 0.0
0.0821514506737231 10.0 0.0
1.08215145067372 10.0 0.0
2.08215145067372 10.0 0.0
3.08215145067372 10.0 0.0
4.08215145067372 10.0 0.0
5.08215145067372 10.0 0.0
6.08215145067372 10.0 0.0
7.08215145067372 10.0 0.0
8.08215145067372 10.0 0.0
-1.41108065114078 11.0 0.0
-0.41108065114078 11.0 0.0
0.58891934885922 11.0 0.0
1.58891934885922 11.0 0.0
2.58891934885922 11.0 0.0
3.58891934885922 11.0 0.0
4.58891934885922 11.0 0.0
5.58891934885922 11.0 0.0
6.58891934885922 11.0 0.0
7.58891934885922 11.0 0.0
8.58891934885922 11.0 0.0
-0.55883099639785 12.0 0.0
0.44116900360215 12.0 0.0
1.44116900360215 12.0 0.0
2.44116900360215 12.0 0.0
3.44116900360215 12.0 0.0
4.44116900360215 12.0 0.0
5.44116900360215 12.0 0.0
6.44116900360215 12.0 0.0
7.44116900360215 12.0 0.0
8.44116900360215 12.0 0.0
9.44116900360215 12.0 0.0
0.43023997617563 13.0 0.0
1.43023997617563 13.0 0.0
2.43023997617563 13.0 0.0
3.43023997617563 13.0 0.0
4.43023997617563 13.0 0.0
5.43023997617563 13.0 0.0
6.43023997617563 13.0 0.0
7.43023997617563 13.0 0.0
8.43023997617563 13.0 0.0
9.43023997617563 13.0 0.0
10.4302399761756 13.0 0.0
1.31397319743758 14.0 0.0
2.31397319743758 14.0 0.0
3.31397319743758 14.0 0.0
4.31397319743758 14.0 0.0
5.31397319743758 14.0 0.0
6.31397319743758 14.0 0.0
7.31397319743758 14.0 0.0
8.31397319743758 14.0 0.0
9.31397319743758 14.0 0.0
10.3139731974376 14.0 0.0
11.3139731974376 14.0 0.0
1.87599995354948 15.0 0.0
2.87599995354948 15.0 0.0
3.87599995354948 15.0 0.0
4.87599995354948 15.0 0.0
5.87599995354948 15.0 0.0
6.87599995354948 15.0 0.0
7.87599995354948 15.0 0.0
8.87599995354948 15.0 0.0
9.87599995354948 15.0 0.0
10.8759999535495 15.0 0.0
11.8759999535495 15.0 0.0
1.97871649324676 16.0 0.0
2.97871649324676 16.0 0.0
3.97871649324676 16.0 0.0
4.97871649324676 16.0 0.0
5.97871649324676 16.0 0.0
6.97871649324676 16.0 0.0
7.97871649324676 16.0 0.0
8.97871649324676 16.0 0.0
9.97871649324676 16.0 0.0
10.9787164932468 16.0 0.0
11.9787164932468 16.0 0.0
1.59697422524698 17.0 0.0
2.59697422524698 17.0 0.0
3.59697422524698 17.0 0.0
4.59697422524698 17.0 0.0
5.59697422524698 17.0 0.0
6.59697422524698 17.0 0.0
7.59697422524698 17.0 0.0
8.59697422524698 17.0 0.0
9.59697422524698 17.0 0.0
10.596974225247 17.0 0.0
11.596974225247 17.0 0.0
0.82423697048351 18.0 0.0
1.82423697048351 18.0 0.0
2.82423697048351 18.0 0.0
3.82423697048351 18.0 0.0
4.82423697048351 18.0 0.0
5.82423697048351 18.0 0.0
6.82423697048351 18.0 0.0
7.82423697048351 18.0 0.0
8.82423697048351 18.0 0.0
9.82423697048351 18.0 0.0
10.8242369704835 18.0 0.0
-0.15030224092362 19.0 0.0
0.84969775907638 19.0 0.0
1.84969775907638 19.0 0.0
2.84969775907638 19.0 0.0
3.84969775907638 19.0 0.0
4.84969775907638 19.0 0.0
5.84969775907638 19.0 0.0
6.84969775907638 19.0 0.0
7.84969775907638 19.0 0.0
8.84969775907638 19.0 0.0
9.84969775907638 19.0 0.0
-1.08804222177874 20.0 0.0
-0.0880422217787395 20.0 0.0
0.91195777822126 20.0 0.0
1.91195777822126 20.0 0.0
2.91195777822126 20.0 0.0
3.91195777822126 20.0 0.0
4.91195777822126 20.0 0.0
5.91195777822126 20.0 0.0
6.91195777822126 20.0 0.0
7.91195777822126 20.0 0.0
8.91195777822126 20.0 0.0
-1.75939151994334 21.0 0.0
-0.75939151994334 21.0 0.0
0.24060848005666 21.0 0.0
1.24060848005666 21.0 0.0
2.24060848005666 21.0 0.0
3.24060848005666 21.0 0.0
4.24060848005666 21.0 0.0
5.24060848005666 21.0 0.0
6.24060848005666 21.0 0.0
7.24060848005666 21.0 0.0
8.24060848005666 21.0 0.0
-1.99998041310141 22.0 0.0
-0.99998041310141 22.0 0.0
1.95868985930492e-05 22.0 0.0
1.00001958689859 22.0 0.0
2.00001958689859 22.0 0.0
3.00001958689859 22.0 0.0
4.00001958689859 22.0 0.0
5.00001958689859 22.0 0.0
6.00001958689859 22.0 0.0
7.00001958689859 22.0 0.0
8.00001958689859 22.0 0.0
-1.75090434937686 23.0 0.0
-0.75090434937686 23.0 0.0
0.24909565062314 23.0 0.0
1.24909565062314 23.0 0.0
2.24909565062314 23.0 0.0
3.24909565062314 23.0 0.0
4.24909565062314 23.0 0.0
5.24909565062314 23.0 0.0
6.24909565062314 23.0 0.0
7.24909565062314 23.0 0.0
8.24909565062314 23.0 0.0
-1.07314583600087 24.0 0.0
-0.0731458360008699 24.0 0.0
0.92685416399913 24.0 0.0
1.92685416399913 24.0 0.0
2.92685416399913 24.0 0.0
3.92685416399913 24.0 0.0
4.92685416399913 24.0 0.0
5.92685416399913 24.0 0.0
6.92685416399913 24.0 0.0
7.92685416399913 24.0 0.0
8.92685416399913 24.0 0.0
-0.1326437947024 25.0 0.0
0.8673562052976 25.0 0.0
1.8673562052976 25.0 0.0
2.8673562052976 25.0 0.0
3.8673562052976 25.0 0.0
4.8673562052976 25.0 0.0
5.8673562052976 25.0 0.0
6.8673562052976 25.0 0.0
7.8673562052976 25.0 0.0
8.8673562052976 25.0 0.0
9.8673562052976 25.0 0.0
0.84033407365328 26.0 0.0
1.84033407365328 26.0 0.0
2.84033407365328 26.0 0.0
3.84033407365328 26.0 0.0
4.84033407365328 26.0 0.0
5.84033407365328 26.0 0.0
6.84033407365328 26.0 0.0
7.84033407365328 26.0 0.0
8.84033407365328 26.0 0.0
9.84033407365328 26.0 0.0
10.8403340736533 26.0 0.0
1.60756885310324 27.0 0.0
2.60756885310324 27.0 0.0
3.60756885310324 27.0 0.0
4.60756885310324 27.0 0.0
5.60756885310324 27.0 0.0
6.60756885310324 27.0 0.0
7.60756885310324 27.0 0.0
8.60756885310324 27.0 0.0
9.60756885310324 27.0 0.0
10.6075688531032 27.0 0.0
11.6075688531032 27.0 0.0
1.98121471138974 28.0 0.0
2.98121471138974 28.0 0.0
3.98121471138974 28.0 0.0
4.98121471138974 28.0 0.0
5.98121471138974 28.0 0.0
6.98121471138974 28.0 0.0
7.98121471138974 28.0 0.0
8.98121471138974 28.0 0.0
9.98121471138974 28.0 0.0
10.9812147113897 28.0 0.0
11.9812147113897 28.0 0.0
1.86979011104937 29.0 0.0
2.86979011104937 29.0 0.0
3.86979011104937 29.0 0.0
4.86979011104937 29.0 0.0
5.86979011104937 29.0 0.0
6.86979011104937 29.0 0.0
7.86979011104937 29.0 0.0
8.86979011104937 29.0 0.0
9.86979011104937 29.0 0.0
10.8697901110494 29.0 0.0
11.8697901110494 29.0 0.0
1.30057568031423 30.0 0.0
2.30057568031423 30.0 0.0
3.30057568031423 30.0 0.0
4.30057568031423 30.0 0.0
5.30057568031423 30.0 0.0
6.30057568031423 30.0 0.0
7.30057568031423 30.0 0.0
8.30057568031423 30.0 0.0
9.30057568031423 30.0 0.0
10.3005756803142 30.0 0.0
11.3005756803142 30.0 0.0
0.41293496387559 31.0 0.0
1.41293496387559 31.0 0.0
2.41293496387559 31.0 0.0
3.41293496387559 31.0 0.0
4.41293496387559 31.0 0.0
5.41293496387559 31.0 0.0
6.41293496387559 31.0 0.0
7.41293496387559 31.0 0.0
8.41293496387559 31.0 0.0
9.41293496387559 31.0 0.0
10.4129349638756 31.0 0.0
-0.57580663333013 32.0 0.0
0.42419336666987 32.0 0.0
1.42419336666987 32.0 0.0
2.42419336666987 32.0 0.0
3.42419336666987 32.0 0.0
4.42419336666987 32.0 0.0
5.42419336666987 32.0 0.0
6.42419336666987 32.0 0.0
7.42419336666987 32.0 0.0
8.42419336666987 32.0 0.0
9.42419336666987 32.0 0.0
-1.42357068473825 33.0 0.0
-0.42357068473825 33.0 0.0
0.57642931526175 33.0 0.0
1.57642931526175 33.0 0.0
2.57642931526175 33.0 0.0
3.57642931526175 33.0 0.0
4.57642931526175 33.0 0.0
5.57642931526175 33.0 0.0
6.57642931526175 33.0 0.0
7.57642931526175 33.0 0.0
8.57642931526175 33.0 0.0
-1.92279498375911 34.0 0.0
-0.92279498375911 34.0 0.0
0.0772050162408864 34.0 0.0
1.07720501624089 34.0 0.0
2.07720501624089 34.0 0.0
3.07720501624089 34.0 0.0
4.07720501624089 34.0 0.0
5.07720501624089 34.0 0.0
6.07720501624089 34.0 0.0
7.07720501624089 34.0 0.0
8.07720501624089 34.0 0.0
-1.95125201093632 35.0 0.0
-0.95125201093632 35.0 0.0
0.0487479890636848 35.0 0.0
1.04874798906368 35.0 0.0
[...]
POINT_DATA 1111
SCALARS potential float 1
LOOKUP_TABLE default
0.0733970482309186
1.0
1.0
1.0
1.0
1.0
1.0
1.0
1.0
1.0
-40.965923555918
-16.8112353872785
-29.5577098024063
-36.0518668066828
-38.2337434922766
-38.4853974046263
-38.114169622025
-37.9430094817378
-39.0128392547678
-43.8318124026961
-61.0395136879433
-75.5557801963009
-61.9809439202417
-75.9247984716307
-79.1923950037682
-78.881984280358
-77.4312293490833
-75.9214551244958
-75.2772563055129
-76.8749227504649
-82.7984003851538
-89.7968387909578
-96.8564617277666
-123.643537880641
-124.744063352249
-122.367118424547
-119.119323948706
-115.58743500802
-112.18426169802
-109.437324192267
-108.022881724442
-107.772567788491
-108.280436052531
-109.027721902228
-191.29172307804
-175.351343484811
-167.328723728561
-161.052820613884
-155.225316944505
-149.352383250969
-143.286226557076
-137.097835083358
-131.006559654191
-125.238587081395
-120.029523907392
-254.99015699083
-231.656047306539
-216.975593353404
-207.113854931814
-199.072094831433
-191.251569305398
-182.665550846171
-172.734694502661
-161.428115629522
-149.352249282535
-137.442196419285
-307.468026946256
-286.48988489266
-269.435412940284
-256.764259959692
-247.008934190876
-238.383288493628
-229.317742989255
-218.377135153419
-204.389893116171
-187.187794323504
-168.111010016023
-344.383633281485
-329.780111154811
-315.95242381569
-304.097600738359
-294.478384964503
-286.395568192823
-278.658616982473
-269.749134331032
-257.617905424904
-239.753637048141
-215.350659704302
-366.340189334895
-358.395055859818
-350.212615825923
-342.481445610929
-335.68734239925
-329.872647508384
-324.610765648708
-319.084016692937
-311.899049932564
-300.063530160696
-277.247971174856
-378.584067011313
-376.356255790559
-373.951826936558
-371.54991647215
-369.29601013389
-367.249517690148
-365.349049288095
-363.410500126994
-361.087312651377
-357.665366542842
-348.689821297695
-387.949355030483
-390.972029964497
-394.170310061328
-397.244992360084
-399.938318150508
-402.131680441924
-403.915630754892
-405.600963123364
-407.772214390457
-411.611560799477
-423.012125988893
-401.247949777185
-410.160667622125
-419.197379806239
-427.511712843627
-434.514295070466
-440.177257103721
-445.049056534862
-450.145772633439
-457.136010393566
-469.319572551715
-492.293718612555
-425.331719152565
-441.081279541678
-455.63540934591
-467.618890583246
-476.82376564122
-484.145755006008
-490.990355687006
-499.068000209069
-510.512518021514
-527.531950953274
-550.278230223156
-465.143123788812
-487.149091859742
-504.177732780793
-515.953116125722
-524.337310407843
-531.385147663155
-538.836218882821
-548.192747185674
-560.527126711204
-575.796231995428
-592.599778708311
-520.90389420795
-544.290970044897
-557.45267622309
-565.190601826918
-570.845848152536
-576.192169505312
-582.338966637426
-589.926515235116
-598.988071737556
-608.916302178269
-618.784530383093
-588.55630144761
-602.221060542963
-607.289416516934
-610.309513517109
-612.716372233007
-615.191581455954
-618.102868589179
-621.56845415165
-625.459680012157
-629.47701423247
-633.26712443088
-661.918095227164
-655.868321735439
-653.830441398603
-652.541085537185
-651.485201206246
-650.396460160141
-649.135813919783
-647.666392770851
-646.046640553906
-644.39737937823
-642.85918575682
-732.89104572202
-711.863278637924
-701.868783094303
-696.068388832269
-691.645045938337
-687.288405234899
-682.238128746615
-676.140916850316
-669.111098780798
-661.660196033122
-654.454039732126
-794.398783177872
-770.77408753167
-754.414332478188
-743.907973154735
-736.423061739292
-729.828449632879
-722.579337535947
-713.529191985636
-702.142175228562
-688.879934890979
-675.008604416853
-841.325088513637
-822.624284801214
-806.33015230473
-793.735767123471
-784.384119404933
-776.823777610419
-769.400221375684
-760.372819812608
-747.93127443008
-730.939751782225
-710.339024709727
-871.77267702982
-860.005595549923
-848.42713038472
-838.133280055995
-829.708450858896
-822.916836619264
-816.882211194145
-810.27168822754
-801.082842596868
-786.050711755962
-762.08778253064
-888.895911206071
-883.498835964474
-877.8355074711
-872.404031684154
-867.611592605257
-863.599860481375
-860.158273163034
-856.743655044779
-852.380471948225
-844.932927985424
-827.099084574348
-899.153462465324
-899.199813303748
-899.249345434599
-899.297531059083
-899.340402448565
-899.375937996208
-899.405192207735
-899.432615550638
-899.466794227822
-899.523613353085
-899.70769052315
-909.471674251469
-914.972089881792
-920.738924281754
-926.263962097242
-931.132733515937
-935.203359934672
-938.693553289446
-942.159166007818
-946.596193218555
-954.185687040272
-972.237385307429
-926.779897668618
-938.669220055021
-950.349217700928
-960.712133369029
-969.176408203611
-975.992819499443
-982.053934342522
-988.707530076991
-997.96882996013
-1013.08764547454
-1037.04536565526
-957.508779627856
-976.327944148735
-992.67552949879
-1005.26898784609
-1014.60056323429
-1022.14577944237
-1029.5686688046
-1038.60928961372
-1051.06041824547
-1068.01463386006
-1088.50059833129
-1004.73095633254
-1028.39915952278
-1044.69580169319
-1055.12067795002
-1062.54175056811
-1069.08972427309
-1076.30082590439
-1085.30726200533
-1096.62538781036
-1109.7822141974
-1123.51980687397
-1066.4745228188
-1087.3516060125
-1097.18602438122
-1102.88012272519
-1107.2216612108
-1111.50483615813
-1116.47875247063
-1122.48785145906
-1129.41442116844
-1136.75153586955
-1143.84252160409
-1137.59990793849
-1143.28371117622
-1145.16806931255
-1146.34610562106
-1147.30581868628
-1148.30125407382
-1149.46497602146
-1150.83163381787
-1152.34500011994
-1153.88971517688
-1155.33201181498
-1211.01196340563
-1197.01853975279
-1191.75884457486
-1188.60619089249
-1186.08924486429
-1183.51392846929
-1180.50528225319
-1176.9403026418
-1172.94674058475
-1168.82746274596
-1164.94152800757
-1278.64759877797
-1255.12297349521
-1241.75765634054
-1233.85226977859
-1228.06489645878
-1222.6126261187
-1216.37840118221
-1208.71064474784
-1199.56257746533
-1189.53528402186
-1179.55957911169
-1334.35494642005
-1312.32762727384
-1295.18543134324
-1283.2534705481
-1274.71786391085
-1267.54370540057
-1260.00075995218
-1250.58669606955
-1238.20907826357
-1222.87606851737
-1205.97166815035
-1374.08703992373
-1358.35680868264
-1343.76971394137
-1331.69231433647
-1322.35233535451
-1314.88425777027
-1307.91211716591
-1299.7547011313
-1288.29674864491
-1271.29743416421
-1248.51844573156
-1398.10163728975
-1389.22687504453
-1380.20041599391
-1371.84821123612
-1364.7496194397
-1358.94040238278
-1353.89628305819
-1348.64054082997
-1341.56260650856
-1329.43356118944
-1306.59208335396
-1411.38594175178
-1408.42593891048
-1405.27285517498
-1402.20052517643
-1399.44263094459
-1397.10525931799
-1395.10537776638
-1393.163715241
-1390.75508509356
-1386.80559433793
-1375.68313899467
-1420.83367714373
-1423.17217847993
-1425.66995717277
-1428.11041658552
-1430.3077020243
-1432.17433717289
-1433.77129781849
-1435.31639622166
-1437.22296871991
-1440.31371921733
-1449.3050653349
-1433.32083959357
-1441.46055884603
-1449.80081153507
-1457.58563520151
-1464.26058299428
-1469.74851151671
-1474.49511053215
-1479.38262616606
-1485.89533717394
-1497.11716573677
-1519.28862887335
-1455.78096375361
-1470.70257219813
-1484.7323373477
-1496.53828068302
-1505.7749789237
-1513.15954956413
-1519.97233987004
-1527.844287525
-1538.91523042432
-1555.70030298781
-1578.90428292666
-1493.59081534031
-1515.02954275716
-1532.15862776912
-1544.34657447401
-1553.10987153023
-1560.39995612619
-1567.96242281158
-1577.37413665603
-1589.88522068397
-1605.67138773115
-1623.36672951751
-1547.61092312518
-1571.41513737432
-1585.54923821804
-1594.01506860785
-1600.15993133286
-1605.87189530518
-1612.36362803569
-1620.38131356239
-1630.04455258733
-1640.75042657853
-1651.49569570146
-1614.15688436088
-1629.92453140141
-1636.11560165904
-1639.78501935337
-1642.69080127295
-1645.64696847804
-1649.09877398939
-1653.20313483806
-1657.8226381202
-1662.60813350536
-1667.14100197534
-1687.29256753879
-1683.96493056807
-1682.8784461633
-1682.19484024511
-1681.6366181282
-1681.05681829225
-1680.37908960438
-1679.58408327009
-1678.70493118828
-1677.80865675618
-1676.97283005438
-1759.0933630939
-1739.32011774876
-1730.45526533773
-1725.3100283216
-1721.34421919057
-1717.39415001334
-1712.79731951021
-1707.26911864407
-1700.94308674717
-1694.28810765257
-1687.8953043654
-1822.2159170814
-1798.34709221292
-1782.49901442669
-1772.55829595946
-1765.46083257168
-1759.11172433067
-1752.05161561059
-1743.2523930862
-1732.3211919137
-1719.79074098641
-1706.85739876408
-1871.3002477432
-1851.73685673249
-1835.07856809516
-1822.50335467507
-1813.27213514341
-1805.76403749923
-1798.27233428683
-1789.08011721405
-1776.52395947135
-1759.78443954281
-1739.9984371243
-1903.8688895057
-1891.18208517467
-1878.84879631449
-1868.04517854627
-1859.31826945579
-1852.31068704946
-1846.0264084188
-1839.03135940461
-1829.24621630842
-1813.55551203204
-1789.64741283395
-1922.42900706753
-1916.24825109522
-1909.80270503719
-1903.66367330938
-1898.28762320546
-1893.81122687568
-1889.96675608854
-1886.11752408607
-1881.13974652968
-1872.57493411207
-1853.17850704187
-1933.19552361627
-1932.54579078563
-1931.84892420001
-1931.16522941301
-1930.54681842969
-1930.01952149216
-1929.56840630494
-1929.13418266734
-1928.60264392949
-1927.75892382315
-1925.16661354121
-1943.11401685401
-1947.84856101263
-1952.84020459238
-1957.6517250487
-1961.91993706451
-1965.50543155743
-1968.57675403126
-1971.60163482584
-1975.43172948393
-1981.91438542372
-1998.19430752516
-1959.0940898786
-1970.0788379299
-1980.99226130818
-1990.80884037296
-1998.92755715886
-2005.49315890737
-2011.28195041225
-2017.53564184227
-2026.17194494409
-2040.52789985684
-2064.38892777626
-1987.7629640967
-2005.69913210906
-2021.61456551125
-2034.15475388827
-2043.55740614517
-2051.12091660649
-2058.44279584155
-2067.27028592206
-2079.52484913804
-2096.63215189105
-2117.87889670811
-2032.81249188889
-2056.13134821456
-2072.83149491168
-2083.77422287315
-2091.55448272341
-2098.31467292853
-2105.66779802898
-2114.86371188517
-2126.57553474345
-2140.42679770343
-2155.09913061998
-2092.89095515836
-2114.82228989169
-2125.75737763763
-2132.09684164463
-2136.87007128176
-2141.52171435856
-2146.90545667043
-2153.44434139533
-2161.050854571
-2169.17962547328
-2177.09595389572
-2163.13421120189
-2171.44656849356
-2174.2787540244
-2176.03132562317
-2177.45341446675
-2178.92447257299
-2180.64398232379
-2182.66689263
-2184.91201738724
-2187.20836459074
-2189.35690698135
-2236.73626570628
-2224.98308420557
-2220.76279610248
-2218.19825225319
-2216.1345727622
-2214.01155111482
-2211.53036887689
-2208.60045042032
-2205.33312813441
-2201.97682322532
-2198.82323053595
-2305.53954897212
-2282.52433310039
-2270.12444861429
-2262.87158984616
-2257.50270880371
-2252.36938474201
-2246.4653980414
-2239.2408360901
-2230.7163903525
-2221.47770881217
-2212.37275674709
-2363.12950629754
-2340.49529832357
-2323.44834124125
-2311.88053790716
-2303.63889894661
-2296.62060389217
-2289.13144992333
-2279.76727689702
-2267.61550326025
-2252.86249872745
-2236.88234488065
-2405.08735378072
-2388.42773835879
-2373.24324996781
-2360.91817260944
-2351.51165595627
-2343.97953566068
-2336.84435240746
-2328.38346177147
-2316.54057558664
-2299.41036681751
-2277.21103942249
-2430.98501174186
-2421.24300994902
-2411.4253969169
-2402.44075946632
-2394.88730801982
-2388.73788619626
-2383.36877565829
-2377.69238866536
-2369.9602911458
-2356.8437133932
-2333.4325215871
-2445.30681794225
-2441.61762364253
-2437.70262925667
-2433.90277368595
-2430.50644560149
-2427.63746290802
-2425.18206507051
-2422.78603107317
-2419.79131970021
-2414.81264191314
-2401.39597039271
-2454.86718632023
-2456.49757361909
-2458.24308913362
-2459.95255287667
-2461.49566815159
-2462.80930584785
-2463.93315633274
-2465.01734298183
-2466.3490986804
-2468.48392417584
-2474.88086436486
-2466.5515311757
-2473.86176625667
-2481.4110363872
-2488.5220026388
-2494.67675012614
-2499.76425999239
-2504.14893572573
-2508.60736971632
-2514.47410160847
-2524.60675635463
-2545.79106842323
-2487.31282591506
-2501.30127149996
-2514.64875673468
-2526.07979873484
-2535.14407559221
-2542.39841702331
-2549.00683074456
-2556.52750395964
-2567.09757888813
-2583.51698732487
-2607.10777024044
-2522.92084648076
-2543.61804351118
-2560.62607526991
-2573.0350934964
-2582.02508908033
-2589.42563972135
-2596.98082085889
-2606.33876609072
-2618.92862768955
-2635.17157919564
-2653.76100223325
-2574.93119043988
-2598.88327341843
-2613.81183235287
-2622.91087930169
-2629.46097996063
-2635.45368833718
-2642.20900100396
-2650.58805647066
-2660.81158048511
-2672.29080601279
-2683.93961237579
-2640.12615819814
-2657.73080289156
-2665.02527829353
-2669.30162051079
-2672.65246095866
-2676.03472185485
-2679.98004115126
-2684.69213759692
-2690.0290170088
-2695.5896863146
-2700.88510305708
-2712.80913875091
-2712.25213417573
-2712.07169852016
-2711.95780849267
-2711.86468396543
-2711.76788744146
-2711.65473431001
-2711.52206686384
-2711.3754560642
-2711.22607799818
-2711.08686418609
-2785.26905177686
-2766.99597737237
-2759.2543575333
-2754.7320259709
-2751.20445829067
-2747.65636774077
-2743.51984242774
-2738.56996255607
-2732.94826794705
-2727.07580598954
-2721.47037488719
-2849.89332289614
-2825.93200206582
-2810.71676656731
-2801.37094676434
-2794.66173801552
-2788.56279513343
-2781.71263942961
-2773.20290806495
-2762.76727207374
-2750.98317312385
-2738.96921867761
-2901.0803529553
-2880.69678721729
-2863.76804216908
-2851.2942976803
-2842.22588856774
-2834.78888804482
-2827.24561817735
-2817.92448645132
-2805.32678221575
-2788.92377125741
-2769.98473816921
-2935.81374891493
-2922.19822119544
-2909.13429275931
-2897.87102711769
-2888.89195698662
-2881.70048308119
-2875.18021601192
-2867.80611034327
-2857.45119044519
-2841.21427172635
-2817.50419693639
-2955.92459739147
-2948.94093982456
-2941.70779444383
-2934.87171242709
-2928.93403857159
-2924.01552326821
-2919.78138684784
-2915.49608431551
-2909.88542996537
-2900.19742641198
-2879.47489124193
-2967.32243898926
-2965.9734649032
-2964.52827651822
-2963.11202415018
-2961.83259388298
-2960.74274468034
-2959.81031628389
-2958.91149623301
-2957.80882911094
-2956.04757227937
-2950.72128367692
-2976.96162057283
-2980.94680336624
-2985.16872825036
-2989.25915762614
-2992.90799255613
-2995.9856505231
-2998.62003006066
-3001.19671518932
-3004.42819690466
-3009.82969771832
-3024.10845949297
-2991.73374257284
-3001.828347651
-3011.96173501085
-3021.19175194029
-3028.91617265027
-3035.1921024198
-3040.68543435748
-3046.52826368175
-3054.52079125621
-3068.01018902746
-3091.59030993784
-3018.40987689054
-3035.43911091013
-3050.84707816736
-3063.25050937354
-3072.66771120267
-3080.21559235417
-3087.40893998261
-3095.98169355376
-3107.9577099424
-3125.10536209582
-3147.04817262845
-3061.25831885085
-3084.11097759593
-3101.08566839322
-3112.48816727541
-3120.60316098383
-3127.55177852932
-3135.00870787654
-3144.33592290254
-3156.37579688271
-3170.88073541344
-3186.48821872576
-3119.58209112861
-3142.33472404332
-3154.32799275479
-3161.31854232341
-3166.51715224787
-3171.51575262035
-3177.27667511608
-3184.31179356008
-3192.57815944508
-3201.49969468916
-3210.26112509386
-3188.82732997315
-3199.63112481654
-3203.44548987828
-3205.77490800366
-3207.65400666816
-3209.59087046648
-3211.85531141823
-3214.52676264414
-3217.50174863294
-3220.55381854186
-3223.41778415188
-3262.47100705145
-3253.14070842985
-3249.91653139203
-3247.92971375466
-3246.32037949002
-3244.6584232556
-3242.71691592792
-3240.43169877192
-3237.89313258497
-3235.29429376601
-3232.86042837148
-3332.34010870225
-3310.0470130312
-3298.67699221783
-3292.07215071624
-3287.12283583972
-3282.3252919386
-3276.78313702038
-3270.03912230646
-3262.16445310586
-3253.71770575742
-3245.46515190982
-3391.74244012896
-3368.58916088773
-3351.75632594691
-3340.61489514689
-3332.69024364359
-3325.84506939804
-3318.44039084924
-3309.18102241707
-3297.32750539684
-3283.20845031867
-3268.16126058848
-3435.93058876554
-3418.34694908199
-3402.61797808926
-3390.11386699024
-3380.68909202654
-3373.11817205915
-3365.83555307497
-3357.09800811905
-3344.94087005619
-3327.80187387814
-3306.2681183576
-3463.80724099741
-3453.17447072379
-3442.56484942879
-3432.96994347293
-3424.99309154902
-3418.52692316745
-3412.84080063974
-3406.73805057561
-3398.34803414443
-3384.32236953534
-3360.55123611251
-3479.29869441481
-3474.86283408367
-3470.17540583461
-3465.64497573309
-3461.61289279013
-3458.21488233865
-3455.300132626
-3452.43581683792
-3448.8290239346
-3442.77018702821
-3427.26247625807
-3489.09753009088
-3490.02680370492
-3491.02172213933
-3491.99448416121
-3492.86885215277
-3493.60678939385
-3494.22990349178
-3494.82465238462
-3495.55745888172
-3496.74174790122
-3500.42224887733
-3500.10983184645
-3506.61404350572
-3513.37709559144
-3519.79476339823
-3525.38849703419
-3530.02438377453
-3533.99607641418
-3537.98216217394
-3543.1708737846
-3552.14693364354
-3572.06657669652
-3519.29261427825
-3532.36138400001
-3544.99775442144
-3555.98850115539
-3564.80269226168
-3571.85034312537
-3578.17990420368
-3585.26974113138
-3595.22778839639
-3611.09376260171
-3634.88123357093
-3552.75680969794
-3572.67582664336
-3589.46166947763
-3601.98617950095
-3611.10733109709
-3618.51796649382
-3625.95122684597
-3635.11805749148
-3647.62335801893
-3664.16767846703
-3683.5516402782
-3602.76125434192
-3626.71901917002
-3642.31175227457
-3651.94792869041
-3658.78740436429
-3664.9227259183
-3671.79119595008
-3680.3821375027
-3691.03842873073
-3703.2045411523
-3715.71006012166
-3666.64788539775
-3685.86840696745
-3694.18926344447
-3698.93196345372
-3702.55549504173
-3706.19021643678
-3710.47520468859
-3715.67519380787
-3721.64970850612
-3727.94147683718
-3733.9809489496
-3739.04827835536
-3741.18005727357
-3741.68407538936
-3741.88836129484
-3742.02082656999
-3742.20763351141
-3742.51340081654
-3742.95070563004
-3743.48684927333
-3744.06235896371
-3744.61181413018
-3812.65610841726
-3795.78859634712
-3788.78203867115
-3784.48216118993
-3781.04345019009
-3777.63278190965
-3773.79169262023
-3769.34361292188
-3764.40723131545
-3759.32377664369
-3754.51515729881
-3879.75588569821
-3855.25244396616
-3840.19029882775
-3830.87502644379
-3824.01209380683
-3817.72305359552
-3810.79847079648
-3802.46579350074
-3792.54402643305
-3781.57881377096
-3770.55386888673
-3934.46230100577
-3912.52762699999
-3894.62960567669
-3881.50826726062
-3871.81207761144
-3863.70224590154
-3855.51618983563
-3845.72451880598
-3833.03800145881
-3817.13388605016
-3799.2463750082
-3972.9338690825
-3957.64682141707
-3943.04247458564
-3930.39660296681
-3920.11912826356
-3911.63392574652
-3903.82358056227
-3895.22545956094
-3883.84426517736
-3867.1345565899
-3844.0461267461
-3995.88737562554
-3987.59551830368
-3978.92271547062
-3970.48668063324
-3962.77853212343
-3955.95829237414
-3949.76600512803
-3943.55391343322
-3936.11568232197
-3924.73756852149
-3903.20653570478
-4008.77889191636
-4006.5767805374
-4004.11587618776
-4001.31150091306
-3998.129052547
-3994.61925943421
-3991.01361353675
-3987.4251831965
-3983.74250972319
-3979.5260285036
-3971.20864707318
-4018.81066052474
-4022.33130740082
-4026.01166692374
-4029.38714360753
-4030.74659737394
-4030.54425297124
-4029.57413218689
-4028.58476644513
-4028.3620042781
-4030.20481451702
-4040.2553408715
-4033.28672979114
-4042.85502457533
-4055.55538070511
-4062.88024374496
-4066.39557592142
-4067.86479880373
-4068.68861019493
-4070.14971956088
-4073.82983376257
-4082.49957049797
-4100.7628478502
-4055.65857560973
-4085.44768681339
-4097.75744990471
-4103.37181305485
-4105.98420169737
-4107.55761546703
-4109.59754262431
-4113.63515661503
-4121.17885752478
-4131.0066135305
-4125.66084495482
